LAMMPS (22 Jul 2025 - Update 3)
KOKKOS mode with Kokkos version 4.7.2 is enabled
  will use up to 4 GPU(s) per node
WARNING: When using a single thread, the Kokkos Serial backend (i.e. Makefile.kokkos_mpi_only) gives better performance than the OpenMP backend (src/KOKKOS/kokkos.cpp:221)
  using 1 OpenMP thread(s) per MPI task
package kokkos
package kokkos newton on neigh half
# Benchmark SNAP Ta potential

# specify the domain decomposition, if desired
# Px, Py, Pz determine be the number of MPI processes in each dimension of the process grid
#processors Px Py Pz

# initialize

variable        nsteps index 100
variable        a equal 3.1803
variable	nx index 4
variable	ny index 4
variable	nz index 4

units		metal

# generate a BCC lattice

boundary	p p p

lattice         bcc $a origin 0.1 0.1 0.1
lattice         bcc 3.1803 origin 0.1 0.1 0.1
Lattice spacing in x,y,z = 3.1803 3.1803 3.1803
region		box block 0 ${nx} 0 ${ny} 0 ${nz}
region		box block 0 1024 0 ${ny} 0 ${nz}
region		box block 0 1024 0 1024 0 ${nz}
region		box block 0 1024 0 1024 0 1024
create_box	1 box
Created orthogonal box = (0 0 0) to (3256.6272 3256.6272 3256.6272)
  8 by 16 by 16 MPI processor grid
create_atoms	1 box
Created 2147483648 atoms
  using lattice units in orthogonal box = (0 0 0) to (3256.6272 3256.6272 3256.6272)
  create_atoms CPU = 0.264 seconds

mass            1 183.84

# choose potential

include         common/W_snap_wrapper.txt
# DATE: 2017-02-20 CONTRIBUTOR: Mitchell Wood mitwood@sandia.gov CITATION: Wood, M. A. and Thompson, A. P. "Quantum-Accurate Molecular Dynamics Potential for Tungsten" arXiv:1702.07042 [physics.comp-ph]
#
# Definition of SNAP+ZBL potential.
variable zblcutinner equal 4
variable zblcutouter equal 4.8
variable zblz equal 74

# Specify hybrid with SNAP and ZBL

pair_style hybrid/overlay zbl ${zblcutinner} ${zblcutouter} snap
pair_style hybrid/overlay zbl 4 ${zblcutouter} snap
pair_style hybrid/overlay zbl 4 4.8 snap
pair_coeff 1 1 zbl ${zblz} ${zblz}
pair_coeff 1 1 zbl 74 ${zblz}
pair_coeff 1 1 zbl 74 74
pair_coeff * * snap ${snapdir}/W.snapcoeff ${snapdir}/W.snapparam W
pair_coeff * * snap common/2J8_W.SNAP/W.snapcoeff ${snapdir}/W.snapparam W
pair_coeff * * snap common/2J8_W.SNAP/W.snapcoeff common/2J8_W.SNAP/W.snapparam W
SNAP Element = W, Radius 0.5, Weight 1
SNAP keyword rcutfac 4.87644
SNAP keyword twojmax 8
SNAP keyword rfac0 0.99363
SNAP keyword rmin0 0
SNAP keyword bzeroflag 1
SNAP keyword quadraticflag 0

#Nomenclature on the snap files are Element_DakotaID_Year_Month

# output

thermo		50
thermo_modify   norm yes

# neighbor params

#neighbor        1.0 bin
neighbor        0.0 bin
neigh_modify    every 1 delay 0 check yes

# jiggle atoms

variable atomjiggle equal 1.0e-3
displace_atoms all random ${atomjiggle} ${atomjiggle} ${atomjiggle} 87287 units box
displace_atoms all random 0.001 ${atomjiggle} ${atomjiggle} 87287 units box
displace_atoms all random 0.001 0.001 ${atomjiggle} 87287 units box
displace_atoms all random 0.001 0.001 0.001 87287 units box
Displacing atoms ...

# run NVT MD
# 1/2 fmsec timestep
# coupling constant = 50 steps

velocity        all create 800.0 4928459 loop local
timestep        0.5e-3
fix             1 all nve
fix             2 all langevin 800.0 800.0 0.025 398928

run             ${nsteps}
run             100
Neighbor list info ...
  update: every = 1 steps, delay = 0 steps, check = yes
  max neighbors/atom: 2000, page size: 100000
  master list distance cutoff = 4.87644
  ghost atom cutoff = 4.87644
  binsize = 4.87644, bins = 668 668 668
  2 neighbor lists, perpetual/occasional/extra = 2 0 0
  (1) pair zbl, perpetual, half/full from (2)
      attributes: half, newton on, kokkos_device
      pair build: halffull/newton/kk/device
      stencil: none
      bin: none
  (2) pair snap, perpetual
      attributes: full, newton on, kokkos_device, cut 4.87644
      pair build: full/bin/kk/device
      stencil: full/bin/3d
      bin: kk/device
Per MPI rank memory allocation (min/avg/max) = 656.6 | 656.6 | 656.6 Mbytes
   Step          Temp          E_pair         E_mol          TotEng         Press     
         0   800           -8.909105       0             -8.8056969      5102.6164    
        50   650.78049     -8.8725411      0             -8.7884211      11546.897    
       100   656.94008     -8.8316586      0             -8.7467424      20358.834    
Loop time of 19.0336 on 2048 procs for 100 steps with 2147483648 atoms

Performance: 0.227 ns/day, 105.742 hours/ns, 5.254 timesteps/s, 11.283 Gatom-step/s
99.7% CPU use with 2048 MPI tasks x 1 OpenMP threads

MPI task timing breakdown:
Section |  min time  |  avg time  |  max time  |%varavg| %total
---------------------------------------------------------------
Pair    | 16.016     | 16.517     | 17.037     |   3.0 | 86.78
Neigh   | 0.18891    | 0.19746    | 0.2081     |   0.5 |  1.04
Comm    | 0.4081     | 0.93251    | 1.4808     |  14.8 |  4.90
Output  | 0.012627   | 0.040627   | 0.053975   |   4.3 |  0.21
Modify  | 0.0055965  | 0.0065731  | 0.016935   |   3.1 |  0.03
Other   |            | 1.339      |            |       |  7.04

Nlocal:    1.04858e+06 ave 1.04858e+06 max 1.04858e+06 min
Histogram: 2048 0 0 0 0 0 0 0 0 0
Nghost:         127543 ave      127549 max      127542 min
Histogram: 522 698 480 0 238 78 0 22 7 3
Neighs:    1.36315e+07 ave 1.36326e+07 max 1.36302e+07 min
Histogram: 4 9 90 277 515 586 382 147 29 9
FullNghs:   2.7263e+07 ave  2.7263e+07 max 2.72629e+07 min
Histogram: 8 19 87 282 515 705 314 99 13 6

Total # of neighbors = 5.5834563e+10
Ave neighs/atom = 25.999994
Neighbor list builds = 100
Dangerous builds = 100

Total wall time: 0:00:22
