LAMMPS (22 Jul 2025 - Update 3)
KOKKOS mode with Kokkos version 4.7.2 is enabled
  will use up to 1 GPU(s) per node
WARNING: When using a single thread, the Kokkos Serial backend (i.e. Makefile.kokkos_mpi_only) gives better performance than the OpenMP backend (src/KOKKOS/kokkos.cpp:221)
  using 1 OpenMP thread(s) per MPI task
package kokkos
package kokkos newton on neigh half
# Benchmark SNAP Ta potential

# specify the domain decomposition, if desired
# Px, Py, Pz determine be the number of MPI processes in each dimension of the process grid
#processors Px Py Pz

# initialize

variable        nsteps index 100
variable        a equal 3.1803
variable	nx index 4
variable	ny index 4
variable	nz index 4

units		metal

# generate a BCC lattice

boundary	p p p

lattice         bcc $a origin 0.1 0.1 0.1
lattice         bcc 3.1803 origin 0.1 0.1 0.1
Lattice spacing in x,y,z = 3.1803 3.1803 3.1803
region		box block 0 ${nx} 0 ${ny} 0 ${nz}
region		box block 0 32 0 ${ny} 0 ${nz}
region		box block 0 32 0 32 0 ${nz}
region		box block 0 32 0 32 0 32
create_box	1 box
Created orthogonal box = (0 0 0) to (101.7696 101.7696 101.7696)
  1 by 1 by 1 MPI processor grid
create_atoms	1 box
Created 65536 atoms
  using lattice units in orthogonal box = (0 0 0) to (101.7696 101.7696 101.7696)
  create_atoms CPU = 0.011 seconds

mass            1 183.84

# choose potential

include         common/W_snap_wrapper.txt
# DATE: 2017-02-20 CONTRIBUTOR: Mitchell Wood mitwood@sandia.gov CITATION: Wood, M. A. and Thompson, A. P. "Quantum-Accurate Molecular Dynamics Potential for Tungsten" arXiv:1702.07042 [physics.comp-ph]
#
# Definition of SNAP+ZBL potential.
variable zblcutinner equal 4
variable zblcutouter equal 4.8
variable zblz equal 74

# Specify hybrid with SNAP and ZBL

pair_style hybrid/overlay zbl ${zblcutinner} ${zblcutouter} snap
pair_style hybrid/overlay zbl 4 ${zblcutouter} snap
pair_style hybrid/overlay zbl 4 4.8 snap
pair_coeff 1 1 zbl ${zblz} ${zblz}
pair_coeff 1 1 zbl 74 ${zblz}
pair_coeff 1 1 zbl 74 74
pair_coeff * * snap ${snapdir}/W.snapcoeff ${snapdir}/W.snapparam W
pair_coeff * * snap common/2J8_W.SNAP/W.snapcoeff ${snapdir}/W.snapparam W
pair_coeff * * snap common/2J8_W.SNAP/W.snapcoeff common/2J8_W.SNAP/W.snapparam W
SNAP Element = W, Radius 0.5, Weight 1
SNAP keyword rcutfac 4.87644
SNAP keyword twojmax 8
SNAP keyword rfac0 0.99363
SNAP keyword rmin0 0
SNAP keyword bzeroflag 1
SNAP keyword quadraticflag 0

#Nomenclature on the snap files are Element_DakotaID_Year_Month

# output

thermo		50
thermo_modify   norm yes

# neighbor params

#neighbor        1.0 bin
neighbor        0.0 bin
neigh_modify    every 1 delay 0 check yes

# jiggle atoms

variable atomjiggle equal 1.0e-3
displace_atoms all random ${atomjiggle} ${atomjiggle} ${atomjiggle} 87287 units box
displace_atoms all random 0.001 ${atomjiggle} ${atomjiggle} 87287 units box
displace_atoms all random 0.001 0.001 ${atomjiggle} 87287 units box
displace_atoms all random 0.001 0.001 0.001 87287 units box
Displacing atoms ...

# run NVT MD
# 1/2 fmsec timestep
# coupling constant = 50 steps

velocity        all create 800.0 4928459 loop local
timestep        0.5e-3
fix             1 all nve
fix             2 all langevin 800.0 800.0 0.025 398928

run             ${nsteps}
run             100
Neighbor list info ...
  update: every = 1 steps, delay = 0 steps, check = yes
  max neighbors/atom: 2000, page size: 100000
  master list distance cutoff = 4.87644
  ghost atom cutoff = 4.87644
  binsize = 4.87644, bins = 21 21 21
  2 neighbor lists, perpetual/occasional/extra = 2 0 0
  (1) pair zbl, perpetual, half/full from (2)
      attributes: half, newton on, kokkos_device
      pair build: halffull/newton/kk/device
      stencil: none
      bin: none
  (2) pair snap, perpetual
      attributes: full, newton on, kokkos_device, cut 4.87644
      pair build: full/bin/kk/device
      stencil: full/bin/3d
      bin: kk/device
Per MPI rank memory allocation (min/avg/max) = 43.76 | 43.76 | 43.76 Mbytes
   Step          Temp          E_pair         E_mol          TotEng         Press     
         0   800           -8.909105       0             -8.8056984      5102.5109    
        50   647.69656     -8.8725905      0             -8.7888704      11509.024    
       100   656.43537     -8.8319717      0             -8.747122       20298.473    
Loop time of 1.10897 on 1 procs for 100 steps with 65536 atoms

Performance: 3.895 ns/day, 6.161 hours/ns, 90.174 timesteps/s, 5.910 Matom-step/s
99.9% CPU use with 1 MPI tasks x 1 OpenMP threads

MPI task timing breakdown:
Section |  min time  |  avg time  |  max time  |%varavg| %total
---------------------------------------------------------------
Pair    | 1.0253     | 1.0253     | 1.0253     |   0.0 | 92.45
Neigh   | 0.026538   | 0.026538   | 0.026538   |   0.0 |  2.39
Comm    | 0.049078   | 0.049078   | 0.049078   |   0.0 |  4.43
Output  | 6.995e-05  | 6.995e-05  | 6.995e-05  |   0.0 |  0.01
Modify  | 0.0028851  | 0.0028851  | 0.0028851  |   0.0 |  0.26
Other   |            | 0.005134   |            |       |  0.46

Nlocal:          65536 ave       65536 max       65536 min
Histogram: 1 0 0 0 0 0 0 0 0 0
Nghost:          20214 ave       20214 max       20214 min
Histogram: 1 0 0 0 0 0 0 0 0 0
Neighs:         851968 ave      851968 max      851968 min
Histogram: 1 0 0 0 0 0 0 0 0 0
FullNghs:  1.70394e+06 ave 1.70394e+06 max 1.70394e+06 min
Histogram: 1 0 0 0 0 0 0 0 0 0

Total # of neighbors = 1703936
Ave neighs/atom = 26
Neighbor list builds = 100
Dangerous builds = 100

Total wall time: 0:00:01
